# vtk DataFile Version 5.1
vtk output
ASCII
DATASET UNSTRUCTURED_GRID
POINTS 12800 float
608.143 -1219.58 2249.72 650.482 -1204.64 2245.66 575.707 -1201.3 2252.58 
619.284 -1184.25 2248.9 604.407 -1228.58 2351.11 647.714 -1213.56 2343.63 
571.329 -1210.37 2356.67 615.865 -1193.24 2349.43 650.482 -1204.64 2245.66 
692.113 -1190.13 2246.6 619.284 -1184.25 2248.9 662.209 -1167.13 2245.55 
647.714 -1213.56 2343.63 690.523 -1199.05 2341.41 615.865 -1193.24 2349.43 
660.016 -1176.08 2342.15 692.113 -1190.13 2246.6 732.252 -1173.64 2248.4 
662.209 -1167.13 2245.55 703.571 -1148.79 2247.34 690.523 -1199.05 2341.41 
732.058 -1182.73 2341.12 660.016 -1176.08 2342.15 702.909 -1157.86 2341.02 
732.252 -1173.64 2248.4 787.137 -1150.96 2249.88 703.571 -1148.79 2247.34 
757.011 -1124.22 2249.37 732.058 -1182.73 2341.12 788.957 -1160.67 2343.46 
702.909 -1157.86 2341.02 758.657 -1133.71 2341.12 787.137 -1150.96 2249.88 
842.244 -1134.03 2291.82 757.011 -1124.22 2249.37 809.963 -1103.76 2290.02 
788.957 -1160.67 2343.46 845.442 -1142.44 2368.94 758.657 -1133.71 2341.12 
813.737 -1112.8 2371.75 842.244 -1134.03 2291.82 897.274 -1116.85 2328.58 
809.963 -1103.76 2290.02 861.947 -1083.46 2336.05 845.442 -1142.44 2368.94 
900.791 -1123.43 2387.26 813.737 -1112.8 2371.75 865.88 -1090.33 2395.48 
897.274 -1116.85 2328.58 950.137 -1095.39 2319.37 861.947 -1083.46 2336.05 
908.673 -1057.67 2325.72 900.791 -1123.43 2387.26 954.687 -1101.96 2378.47 
865.88 -1090.33 2395.48 913.106 -1064.47 2384.41 950.137 -1095.39 2319.37 
1002.79 -1071.94 2317.1 908.673 -1057.67 2325.72 957.175 -1033.21 2318.74 
954.687 -1101.96 2378.47 1008.26 -1078.2 2376.27 913.106 -1064.47 2384.41 
962.182 -1039.79 2377.91 1002.79 -1071.94 2317.1 1056.68 -1046.88 2319.56 
957.175 -1033.21 2318.74 1007.09 -1005.64 2317.19 1008.26 -1078.2 2376.27 
1063.1 -1052.39 2377.6 962.182 -1039.79 2377.91 1013.01 -1011.62 2376.26 
1056.68 -1046.88 2319.56 1112.85 -1021.12 2326.99 1007.09 -1005.64 2317.19 
1058.72 -975.417 2300.11 1063.1 -1052.39 2377.6 1120.71 -1025.84 2386.11 
1013.01 -1011.62 2376.26 1065.97 -980.432 2358.68 1112.85 -1021.12 2326.99 
1170.41 -993.895 2332.34 1058.72 -975.417 2300.11 1113 -947.606 2280.12 
1120.71 -1025.84 2386.11 1180.36 -997.686 2395.2 1065.97 -980.432 2358.68 
1121.25 -951.099 2333.62 1170.41 -993.895 2332.34 1223.6 -964.015 2308.19 
1113 -947.606 2280.12 1167.71 -919.851 2267.44 1180.36 -997.686 2395.2 
1234.4 -966.072 2366.83 1121.25 -951.099 2333.62 1177.47 -922.022 2319.54 
1223.6 -964.015 2308.19 1275.46 -930.606 2293.95 1167.71 -919.851 2267.44 
1220.08 -888.095 2262 1234.4 -966.072 2366.83 1286.79 -930.838 2348.84 
1177.47 -922.022 2319.54 1231.46 -888.803 2314.33 1275.46 -930.606 2293.95 
1326.69 -893.687 2290.88 1220.08 -888.095 2262 1270.98 -851.668 2264.23 
1286.79 -930.838 2348.84 1338.63 -891.886 2345.27 1231.46 -888.803 2314.33 
1283.43 -850.677 2316.23 1326.69 -893.687 2290.88 1380.41 -857.592 2298.69 
1270.98 -851.668 2264.23 1324.48 -816.531 2270.15 1338.63 -891.886 2345.27 
1392.74 -853.027 2355.4 1283.43 -850.677 2316.23 1337.08 -813.93 2320.61 
1380.41 -857.592 2298.69 1434.21 -819.206 2315.25 1324.48 -816.531 2270.15 
1378.13 -777.581 2278.95 1392.74 -853.027 2355.4 1446.35 -810.796 2376.95 
1337.08 -813.93 2320.61 1391.35 -773.536 2332.56 1434.21 -819.206 2315.25 
1487.72 -774.95 2342.02 1378.13 -777.581 2278.95 1433.97 -733.545 2299.98 
1446.35 -810.796 2376.95 1498.52 -763.683 2406.52 1391.35 -773.536 2332.56 
1448.29 -728.981 2361.96 1487.29 -775.402 2339.43 1522.11 -737.889 2343.12 
1427.53 -735.597 2272.12 1478.26 -696.025 2327.61 1498.57 -763.634 2406.8 
1532.59 -731.223 2403.39 1442.86 -730.712 2338.45 1493.76 -693.376 2400.22 
1522.11 -737.889 2343.12 1556.56 -701.774 2345.12 1478.26 -696.025 2327.61 
1518.31 -659.183 2343.55 1532.59 -731.223 2403.39 1567.42 -698.883 2405.98 
1493.76 -693.376 2400.22 1529.91 -659.975 2404.16 1556.56 -701.774 2345.12 
1590.2 -667.756 2343.84 1518.31 -659.183 2343.55 1556.06 -625.64 2342.37 
1567.42 -698.883 2405.98 1601.09 -667.858 2404.5 1529.91 -659.975 2404.16 
1566.23 -629.3 2402.76 575.707 -1201.3 2252.58 619.284 -1184.25 2248.9 
539.779 -1189.5 2330.7 586.962 -1166.9 2287.47 571.329 -1210.37 2356.67 
615.865 -1193.24 2349.43 536.725 -1194.83 2393.61 583.383 -1174.38 2373.24 
619.284 -1184.25 2248.9 662.209 -1167.13 2245.55 586.962 -1166.9 2287.47 
632.805 -1144.24 2247.5 615.865 -1193.24 2349.43 660.016 -1176.08 2342.15 
583.383 -1174.38 2373.24 629.699 -1153.26 2347 662.209 -1167.13 2245.55 
703.571 -1148.79 2247.34 632.805 -1144.24 2247.5 675.626 -1123.66 2246.05 
660.016 -1176.08 2342.15 702.909 -1157.86 2341.02 629.699 -1153.26 2347 
674.183 -1132.74 2341.45 703.571 -1148.79 2247.34 757.011 -1124.22 2249.37 
675.626 -1123.66 2246.05 727.969 -1096.72 2248.15 702.909 -1157.86 2341.02 
758.657 -1133.71 2341.12 674.183 -1132.74 2341.45 729.202 -1106.27 2341.43 
757.011 -1124.22 2249.37 809.963 -1103.76 2290.02 727.969 -1096.72 2248.15 
777.847 -1069.28 2264.3 758.657 -1133.71 2341.12 813.737 -1112.8 2371.75 
729.202 -1106.27 2341.43 782.249 -1078.93 2350.64 809.963 -1103.76 2290.02 
861.947 -1083.46 2336.05 777.847 -1069.28 2264.3 826.415 -1043.38 2311.71 
813.737 -1112.8 2371.75 865.88 -1090.33 2395.48 782.249 -1078.93 2350.64 
831.84 -1051.62 2380.19 861.947 -1083.46 2336.05 908.673 -1057.67 2325.72 
826.415 -1043.38 2311.71 868.615 -1017.99 2334.68 865.88 -1090.33 2395.48 
913.106 -1064.47 2384.41 831.84 -1051.62 2380.19 872.634 -1025.16 2393.73 
908.673 -1057.67 2325.72 957.175 -1033.21 2318.74 868.615 -1017.99 2334.68 
912.722 -992.238 2317.49 913.106 -1064.47 2384.41 962.182 -1039.79 2377.91 
872.634 -1025.16 2393.73 917.581 -999.848 2383.46 957.175 -1033.21 2318.74 
1007.09 -1005.64 2317.19 912.722 -992.238 2317.49 955.348 -958.64 2272.17 
962.182 -1039.79 2377.91 1013.01 -1011.62 2376.26 917.581 -999.848 2383.46 
960.437 -965.173 2331.32 1007.09 -1005.64 2317.19 1058.72 -975.417 2300.11 
955.348 -958.64 2272.17 1003.67 -923.66 2241.22 1013.01 -1011.62 2376.26 
1065.97 -980.432 2358.68 960.437 -965.173 2331.32 1008.68 -927.879 2286.54 
1058.72 -975.417 2300.11 1113 -947.606 2280.12 1003.67 -923.66 2241.22 
1060.1 -896.166 2235.03 1065.97 -980.432 2358.68 1121.25 -951.099 2333.62 
1008.68 -927.879 2286.54 1065.71 -898.761 2273.1 1113 -947.606 2280.12 
1167.71 -919.851 2267.44 1060.1 -896.166 2235.03 1116.28 -870.277 2228.88 
1121.25 -951.099 2333.62 1177.47 -922.022 2319.54 1065.71 -898.761 2273.1 
1123.88 -872.253 2268.55 1167.71 -919.851 2267.44 1220.08 -888.095 2262 
1116.28 -870.277 2228.88 1168.45 -839.691 2231.32 1177.47 -922.022 2319.54 
1231.46 -888.803 2314.33 1123.88 -872.253 2268.55 1178.15 -840.901 2273.62 
1220.08 -888.095 2262 1270.98 -851.668 2264.23 1168.45 -839.691 2231.32 
1217.87 -803.978 2237.77 1231.46 -888.803 2314.33 1283.43 -850.677 2316.23 
1178.15 -840.901 2273.62 1229.59 -803.694 2282.33 1270.98 -851.668 2264.23 
1324.48 -816.531 2270.15 1217.87 -803.978 2237.77 1274.16 -767.925 2252.88 
1283.43 -850.677 2316.23 1337.08 -813.93 2320.61 1229.59 -803.694 2282.33 
1289.98 -766.58 2308.74 1324.48 -816.531 2270.15 1378.13 -777.581 2278.95 
1274.16 -767.925 2252.88 1330.8 -726.344 2268.55 1337.08 -813.93 2320.61 
1391.35 -773.536 2332.56 1289.98 -766.58 2308.74 1346.2 -725.051 2320.42 
1378.13 -777.581 2278.95 1433.97 -733.545 2299.98 1330.8 -726.344 2268.55 
1384.46 -682.388 2273.97 1391.35 -773.536 2332.56 1448.29 -728.981 2361.96 
1346.2 -725.051 2320.42 1400.09 -682.015 2326.99 1427.53 -735.597 2272.12 
1478.26 -696.025 2327.61 1380.39 -682.485 2260.19 1427.95 -647.737 2278.42 
1442.86 -730.712 2338.45 1493.76 -693.376 2400.22 1393.57 -682.171 2304.87 
1444.92 -649.476 2344.86 1478.26 -696.025 2327.61 1518.31 -659.183 2343.55 
1427.95 -647.737 2278.42 1480.41 -613.522 2334.9 1493.76 -693.376 2400.22 
1529.91 -659.975 2404.16 1444.92 -649.476 2344.86 1493.59 -618.391 2399.74 
1518.31 -659.183 2343.55 1556.06 -625.64 2342.37 1480.41 -613.522 2334.9 
1521.77 -581.756 2339.09 1529.91 -659.975 2404.16 1566.23 -629.3 2402.76 
1493.59 -618.391 2399.74 1530.84 -589.856 2399.89 539.779 -1189.5 2330.7 
586.962 -1166.9 2287.47 502.671 -1177.61 2411.66 554.211 -1149.52 2329.17 
536.725 -1194.83 2393.61 583.383 -1174.38 2373.24 501.165 -1179.81 2438.63 
550.707 -1155.23 2396.96 586.962 -1166.9 2287.47 632.805 -1144.24 2247.5 
554.211 -1149.52 2329.17 604.219 -1121.11 2250.08 583.383 -1174.38 2373.24 
629.699 -1153.26 2347 550.707 -1155.23 2396.96 599.772 -1130.09 2352.28 
632.805 -1144.24 2247.5 675.626 -1123.66 2246.05 604.219 -1121.11 2250.08 
648.848 -1098.23 2245.82 629.699 -1153.26 2347 674.183 -1132.74 2341.45 
599.772 -1130.09 2352.28 646.074 -1107.32 2343.91 675.626 -1123.66 2246.05 
727.969 -1096.72 2248.15 648.848 -1098.23 2245.82 700.159 -1069.15 2247.19 
674.183 -1132.74 2341.45 729.202 -1106.27 2341.43 646.074 -1107.32 2343.91 
700.288 -1078.57 2341.21 727.969 -1096.72 2248.15 777.847 -1069.28 2264.3 
700.159 -1069.15 2247.19 747.286 -1036.24 2249.11 729.202 -1106.27 2341.43 
782.249 -1078.93 2350.64 700.288 -1078.57 2341.21 751.66 -1046.39 2340.6 
777.847 -1069.28 2264.3 826.415 -1043.38 2311.71 747.286 -1036.24 2249.11 
789.442 -998.964 2264.48 782.249 -1078.93 2350.64 831.84 -1051.62 2380.19 
751.66 -1046.39 2340.6 798.427 -1010.31 2355.92 826.415 -1043.38 2311.71 
868.615 -1017.99 2334.68 789.442 -998.964 2264.48 826.463 -972.216 2296.28 
831.84 -1051.62 2380.19 872.634 -1025.16 2393.73 798.427 -1010.31 2355.92 
829.857 -981.712 2371.78 868.615 -1017.99 2334.68 912.722 -992.238 2317.49 
826.463 -972.216 2296.28 865.857 -942.582 2253.34 872.634 -1025.16 2393.73 
917.581 -999.848 2383.46 829.857 -981.712 2371.78 869.016 -948.066 2302.11 
912.722 -992.238 2317.49 955.348 -958.64 2272.17 865.857 -942.582 2253.34 
906.59 -911.135 2229.5 917.581 -999.848 2383.46 960.437 -965.173 2331.32 
869.016 -948.066 2302.11 908.062 -913.64 2250.22 955.348 -958.64 2272.17 
1003.67 -923.66 2241.22 906.59 -911.135 2229.5 957.89 -876.415 2245.33 
[...]
CELL_DATA 1600
FIELD FieldData 4
PERMX 1 1600 float
54.3771 57.7865 60.0855 58.2444 57.7575 69.8939 95.7696 131.338 179.715 
238.468 285.924 371.583 442.245 449.179 384.476 280.97 158.355 45.099 
26.7061 35.4337 52.6654 55.3131 58.733 59.6069 57.4704 60.0897 75.372 
100.917 138.965 236.479 412.337 529.181 618.859 628.923 540.835 416.759 
275.601 150.401 55.7803 54.1633 57.4011 53.1302 56.4693 59.7579 58.4765 
57.2581 63.3884 88.1186 125.495 216.432 418.608 599.543 821.074 949.37 
782.398 542.463 384.022 253.17 134.142 90.9881 77.7565 55.415 53.9957 
57.74 59.8896 64.8318 112.503 163.647 187.484 221.253 306.024 485.094 
726.148 1004.49 1020.01 764.948 505.324 256.971 151.966 122.733 107.154 
72.0483 53.5069 54.9482 69.3076 130.526 216.181 303.252 342.074 328.462 
323.137 383.836 577.499 891.932 1026.8 866.575 563.61 322.654 194.591 
142.051 140.352 99.0221 64.5994 66.079 139.072 219.568 350.332 426.266 
426.196 395.757 386.053 364.125 471.025 696.57 920.094 792.034 571.226 
353.382 220.506 151.809 170.469 127.931 89.1147 129.929 194.35 325.083 
427.366 472.294 461.765 411.258 393.448 364.026 395.481 537.945 654.872 
627.538 521.828 352.556 224.303 155.191 194.068 144.321 100.402 159.82 
253.633 379.304 463.808 498.993 482.153 433.231 385.218 350.39 334.28 
425.744 500.206 501.394 436.427 322.003 207.464 151.323 216.815 150.123 
106.123 187.62 297.758 406.032 487.78 513.009 493.081 445.499 382.454 
309.671 274.858 325.808 380.779 389.005 345.37 262.711 184.906 144.409 
224.787 147.399 110.127 211.287 325.861 423.665 500.004 519.271 494.169 
448.785 379.632 277.416 220.957 212.704 253.315 275.189 250.362 205.895 
174.876 148.388 223.688 140.535 111.389 222.461 336.044 428.083 502.17 
519.29 495.41 440.607 350.906 283.303 183.317 150.374 167.898 187.208 
184.489 177.35 162.807 148.626 218.522 148.214 109.386 215.693 324.789 
415.515 493.543 509.1 483.019 425.966 344.205 241.137 169.272 131.044 
128.58 135.004 139.893 155.238 146.956 148.675 213.982 145.414 105.704 
188.291 283.256 380.672 451.818 475.228 447.519 389.395 299.781 210.44 
156.048 122.789 102.792 94.7447 100.233 121.372 142.428 153.46 216.438 
160.999 102.703 143.466 214.787 301.574 379.451 412.221 387.261 314.032 
230.66 175.856 137.847 105.3 84.0355 72.7239 73.1456 88.3287 110.862 
146.978 212.661 164.801 92.6042 102.746 157.528 203.03 247.321 273.536 
251.06 205.836 172.232 142.575 112.646 88.7207 72.471 61.865 57.7413 
62.9056 83.5935 116.014 191.026 131.007 84.4467 94.326 121.92 158.246 
179.01 178.697 163.93 149.953 132.095 109.673 88.2731 71.2905 59.7545 
50.4117 43.7901 42.2204 59.0128 87.3842 130.945 103.907 108.989 124.88 
145.879 173.285 191.592 186.634 152.218 126.913 105.969 84.4111 72.2251 
59.7216 46.196 36.7426 29.713 25.5116 38.6241 62.4611 110.667 144.782 
178.129 202.642 211.206 212.094 204.948 193.957 166.566 125.667 93.7728 
71.9324 62.3234 49.1621 35.8202 25.0759 18.0116 12.6456 19.7998 42.2153 
167.477 207.359 243.545 267.431 272.142 263.985 246.487 224.909 199.235 
154.938 103.969 74.3578 63.1472 48.4376 31.8808 19.0528 11.6303 4.99226 
6.5036 21.2715 223.852 268.348 314.969 346.823 350.605 328.086 289.51 
255.969 231.859 195.653 138.337 91.1546 71.1991 55.0692 36.1525 18.7183 
8.55686 0.397424 0.250331 6.18544 635.384 631.262 629.865 632.042 635.108 
624.375 605.218 603.703 630.514 688.44 735.485 771.269 802.05 834.581 
869.726 912.742 966.86 1012.14 1018.72 1018.44 637.293 634.068 630.465 
630.428 633.617 633.918 617.583 604.489 603.384 630.969 683.27 728.684 
759.642 788.408 825.562 865.536 912.396 964.242 1010.37 1018.87 632.917 
636.807 632.64 629.954 631.734 634.887 632.201 609.879 585.432 583.232 
619.985 670.801 717.046 746.907 781.702 826.482 869.591 911.544 970.667 
1013.13 614.789 634.871 635.906 631.392 630.125 629.176 591.783 536.91 
507.947 500.863 527.644 601.827 653.685 693.434 731.925 774.995 825.126 
909.088 959.996 999.382 583.3 619.04 636.171 634.793 624.847 577.654 
509.427 454.376 433.087 441.764 473.729 537.593 608.386 654.445 700.759 
746.518 796.912 871.761 923.525 974.875 551.687 590.618 625.729 626.042 
570.39 509.573 433.404 384.858 380.999 410.899 444.946 492.559 562.392 
622.125 673.135 724.504 775.211 847.417 892.805 947.338 526.321 561.711 
603.136 577.785 525.996 450.566 380.604 336.058 347.583 393.034 432.18 
470.577 528.714 595.864 651.194 707.817 758.03 828.09 872.318 923.02 
503.08 545.758 595.465 552.692 492.157 416.249 343.252 303.734 318.652 
363.96 418.109 454.734 489.933 576.564 636.075 696.081 745.575 811.446 
857.458 905.705 477.506 538.481 595.026 533.647 466.756 396.696 317.26 
289.515 307.376 352.027 411.938 451.645 484.533 565.109 626.735 688.284 
737.884 797.715 845.945 894.509 471.43 540.028 595.501 518.882 451.527 
384.003 308.487 284.932 305.341 349.844 410.305 452.441 486.109 561.03 
621.481 682.1 732.132 787.462 837.141 887.989 471.814 547.336 594.93 
512.376 446.675 379.949 304.755 285.505 304.137 369.102 423.022 447.066 
498.017 560.479 617.444 675.064 725.739 779.155 830.027 884.053 475.698 
542.721 595.235 518.767 453.154 389.226 310.91 292.311 314.115 375.438 
424.63 466.353 510.979 564.585 618.057 671.302 721.971 775.879 827.96 
883.812 479.714 540.142 593.517 537.763 473.698 414.803 352.397 323.411 
349.806 399.475 441.404 484.212 529.425 578.431 627.595 677.199 725.212 
779.644 833.281 889.524 477.386 528.79 589.07 568.733 507.923 454.192 
410.309 387.774 400.501 433.513 472.436 512.942 555.754 601.513 646.888 
692.838 736.65 792.88 846.739 898.659 480.72 524.934 590.441 601.193 
547.397 500.392 467.231 448.413 455.081 480.594 514.366 551.97 591.321 
632.266 675.728 715.313 754.302 812.677 865.068 912.765 501.097 552.543 
609.566 607.946 581.15 532.167 508.102 504.099 514.667 541.732 571.91 
601.557 634.972 675.606 709.319 742.689 778.84 836.005 885.181 927.894 
555.12 593.979 595.331 582.705 560.352 527.02 510.263 529.487 573.384 
603.548 631.106 662.642 692.194 716.43 743.151 773.953 806.129 862.994 
905.244 942.529 592.59 563.912 530.903 505.465 494.497 490.805 496.665 
514.343 565.543 613.605 656.139 694.348 719.865 745.857 767.014 795.41 
828.183 882.694 921.661 954.511 541.902 501.221 464.108 436.796 428.968 
433.427 449.849 473.956 505.148 566.237 621.839 669.329 704.614 738.938 
769.656 797.989 832.993 887.617 924.928 961.201 485.636 440.163 399.88 
379.288 373.614 383.105 406.488 435.092 463.869 504.949 567.232 619.586 
666.986 709.096 749.78 784.996 820.511 874.501 912.186 950.77 636.957 
633.017 631.409 633.595 634.72 623.624 599.049 554.448 505.742 479.011 
459.903 419.654 389.987 394.008 428.61 482.696 547.597 598.241 601.758 
598.309 640.813 635.662 632.052 632.083 634.814 632.272 618.181 593.31 
548.772 477.595 394.423 338.156 308.841 316.912 359.419 422.82 493.598 
561.503 594.003 593.161 636.994 639.29 634.433 631.492 633.391 635.125 
630.058 612.388 571.44 494.787 378.342 286.257 233.26 231.035 291.223 
367.335 444.327 507.717 564.009 584.185 618.253 638.843 637.828 633.112 
631.753 631.735 604.798 553.509 530.452 494.771 423.033 321.667 232.125 
189.089 205.652 290.351 378.557 511.573 552.092 572.33 587.41 622.032 
640.098 636.567 627.68 586.152 514.962 469.932 449.017 446.381 436.562 
375.868 272.562 198.053 192.729 254.434 345.068 468.308 526.737 556.207 
553.857 593.891 628.124 631.347 576.152 510.433 439.115 391.849 387.367 
409.481 416.149 407.782 321.384 232.413 203.026 252.907 334.748 441.942 
507.459 547.403 526.065 564.034 605.531 580.376 522.737 452.443 387.219 
342.497 354.523 399.923 409.16 411.076 368.417 292.85 258.172 284.718 
346.46 436.819 499.505 542.765 504.008 545.062 596.286 550.112 485.768 
419.917 350.172 304.824 318.69 365.841 412.734 429.093 425.741 355.539 
323.147 332.626 379.667 448.973 503.442 543.75 482.967 535.476 593.248 
526.913 462.324 403.772 323.779 289.484 300.749 353.856 411.556 449.279 
455.642 416.045 389.18 392.671 420.585 474.086 516.157 550.678 475.361 
536.633 592.903 512.143 450.923 393.494 315.137 284.964 298.674 351.079 
410.826 460.056 488.975 484.219 452.692 448.376 467.967 501.137 524.877 
556.172 474.338 546.007 593.417 505.671 447.427 390.501 311.076 285.783 
309.507 354.251 413.613 467.644 504.658 530.938 512.063 501.564 507.528 
522.062 538.028 559.423 475.701 538.387 593.666 509.094 450.992 398.315 
317.015 292.196 314.849 376.044 429.01 477.594 524.333 566.346 570.139 
559.933 552.868 543.527 552.249 554.254 477.795 536.879 592.55 528.485 
467.765 418.6 357.585 321.323 345.195 398.731 448.486 495.401 539.721 
585.693 598.808 599.178 596.129 571.01 557.153 546.932 474.161 524.602 
587.43 565.193 501.3 455.279 413.176 385.246 397.229 435.799 480.528 
519.516 565.627 597.864 587.773 574.04 573.163 589.841 586.437 549.9 
475.454 519.228 586.247 601.49 546.654 502.673 474.247 456.291 464.998 
492.399 520.862 557.632 592.423 591.798 549.01 522.849 515.119 534.84 
581.808 576.164 495.547 542.347 605.742 611.534 585.059 540.496 513.176 
509.142 519.42 539.959 569.008 594.043 592.772 560.6 517.459 493.487 
480.332 486.134 528.785 586.591 544.702 590.212 598.144 588.464 568.979 
535.98 509.291 506.064 535.609 577.151 597.038 595.738 555.692 515.397 
488.737 460.948 441.592 441.591 483.286 540.977 595.76 572.558 538.992 
512.886 499.342 493.174 496.754 505.042 529.607 577.627 600.715 581.668 
529.535 494.2 461.529 430.305 412.237 402.695 432.663 494.197 553.853 
510.002 473.328 444.403 433.362 434.964 449.624 473.052 499.049 544.072 
594.059 585.532 531.984 494.02 454.041 416.807 397.888 382.772 392.292 
442.915 494.829 450.984 409.301 386.246 377.201 383.242 405.228 433.429 
463.024 501.303 561.04 598.216 556.61 508.991 466.712 418.663 391.549 
373.587 378.221 400.383 77.7952 79.4159 80.6053 83.3811 87.2702 90.4388 
90.8754 87.6922 81.4445 75.7853 70.6163 65.3626 61.4286 58.8553 58.515 
60.611 64.7764 69.268 72.3935 75.1126 75.5321 78.418 79.7149 81.6548 
85.1263 88.9085 90.9146 90.6551 87.1577 81.1459 75.8908 70.6923 66.73 
64.8689 64.9873 66.8081 70.0718 73.1479 75.9019 78.6478 72.4449 76.641 
78.9636 80.3304 83.22 86.8028 89.6787 90.9587 90.8137 87.8565 81.6413 
76.3353 72.9756 71.5136 72.0303 73.9192 76.7496 78.9029 80.7016 83.5965 
69.6723 73.2076 77.3306 79.3773 81.2029 84.2262 87.7812 89.4205 90.0972 
90.6319 90.2655 86.5356 82.0175 80.5693 81.9078 83.0555 84.9749 83.2518 
86.0326 88.3789 67.8069 69.9584 73.9009 77.8877 79.9005 84.0076 89.3381 
90.2822 90.1768 89.8609 89.6893 90.2406 89.2604 86.9833 88.4462 89.4674 
89.6524 90.0781 91.0014 91.1871 65.8317 68.1046 70.4874 75.87 81.4141 
87.278 91.101 92.465 92.8332 92.1245 90.622 89.3841 89.9057 90.1437 
90.995 90.7889 91.245 90.0331 89.9144 89.4675 63.787 66.373 69.6148 
76.4229 82.2808 87.4539 91.0131 94.443 97.568 99.6256 98.9782 95.6375 
90.569 91.4552 95.4514 98.1843 97.8851 92.8719 91.382 90.4456 62.2178 
65.8807 70.3534 76.8154 81.6852 86.4836 90.7242 96.5666 99.5692 101.464 
102.45 101.788 98.8165 95.0035 98.6462 101.652 102.667 98.796 97.2908 
96.0253 62.9296 67.1244 71.2946 76.6052 81.1221 85.6889 90.5642 96.7967 
100.004 102.798 104.859 104.508 102.405 99.8223 100.284 103.317 105.72 
103.569 102.447 101.529 64.9329 68.8728 72.5165 76.8182 81.1489 85.3452 
90.2313 96.939 100.433 103.936 106.634 107.002 105.216 103.195 102.622 
104.939 107.556 107.817 107.17 106.258 67.2033 70.6938 73.8719 77.9842 
81.8139 85.5663 90.2986 97.1369 101.455 104.386 107.598 108.968 109.431 
106.852 105.465 106.825 109.18 111.144 111.471 110.969 69.5592 72.5787 
75.4322 79.9003 83.1913 86.7571 91.4271 97.7125 102.234 105.922 108.27 
110.115 111.009 109.761 108.539 109.258 111.031 113.848 115.305 115.586 
71.8849 74.7537 77.2307 82.0479 85.253 88.8677 93.697 99.2623 103.088 
106.002 108.815 111.341 112.868 112.507 111.769 112.221 113.658 116.655 
118.839 119.63 74.182 76.7669 80.1342 84.3294 87.8721 92.0149 96.9496 
101.166 104.161 106.818 109.604 112.397 115.237 116.11 116.005 116.076 
117.126 119.732 121.702 122.855 76.8607 79.5962 82.9725 87.2587 91.2217 
96.0294 100.26 103.176 105.557 108.186 110.97 114.17 117.541 119.279 
119.712 119.757 120.288 122.168 123.947 125.242 80.3329 83.0815 86.3775 
91.1305 95.8832 100.15 103.093 105.228 107.34 109.94 112.764 115.917 
119.106 121.461 122.443 122.764 123.102 124.628 126.022 127.306 84.0704 
86.7255 90.4943 95.8896 100.111 103.151 105.161 107.235 109.686 112.163 
114.921 117.943 120.494 123.006 124.777 125.557 126.019 127.32 128.344 
129.483 88.2851 91.5142 96.303 100.753 103.107 105.297 107.326 109.676 
112.229 114.815 117.382 119.939 122.439 124.766 126.732 127.893 128.673 
129.837 130.71 131.73 93.7528 97.5065 101.268 103.895 105.495 107.798 
110.1 112.322 114.897 117.481 119.782 121.945 124.233 126.519 128.475 
129.832 130.773 132.181 132.993 133.759 99.656 102.483 104.638 106.289 
108.117 110.577 112.933 115.074 117.491 119.966 122.058 124.114 126.253 
128.313 129.974 131.442 132.442 133.983 134.397 134.301 
PERMY 1 1600 float
48.9682 52.0351 54.081 52.4222 51.9412 62.3296 86.6143 118.325 162.154 
214.48 253.505 334.088 396.434 401.472 345.176 253.195 143.03 46.398 
23.7912 31.7362 47.6128 49.8738 52.8702 53.6537 51.7525 53.9252 68.2059 
91.3272 122.966 215.808 375.82 482.457 561.443 566.361 485.033 374.931 
250.717 136.785 49.5115 48.1334 51.7686 48.0061 50.8408 53.7824 52.6603 
51.5413 57.205 78.4998 112.062 184.616 349.584 544.265 780.527 870.073 
708.103 489.311 349.879 229.092 120.843 81.8385 67.9236 50.1513 48.5938 
51.9575 53.9042 57.5288 103.402 147.017 165.866 198.706 279.602 438.308 
659.708 902.858 919.454 671.628 449.257 230.586 136.273 110.213 96.1921 
64.9598 48.5439 49.5027 61.5437 117.542 194.433 265.864 305.609 300.743 
295.538 347.211 527.894 807.061 924.712 765.955 492.287 292.896 173.175 
127.447 126.474 89.3637 57.4078 63.8555 128.104 198.111 316.156 384.33 
385.25 355.607 345.246 327.65 432.951 632.94 828.672 739.012 487.933 
320.961 198.239 135.118 153.43 115.009 77.9887 121.244 175.869 294.978 
384.188 425.181 425.027 377.991 351.605 330.539 369.697 489.82 584.43 
577.748 454.624 322.151 203.303 137.993 173.878 131.419 90.5945 149.257 
227.868 343.724 413.792 450.741 446.564 389.471 347.072 317.133 318.468 
389.152 448.094 454.916 393.233 296.084 189.542 134.841 192.587 138.848 
95.9559 174.335 269.21 365.139 435.65 461.196 453.468 401.538 344.876 
280.02 254.576 294.949 340.879 349.393 316.442 239.154 168.919 129.255 
202.717 137.475 101.259 193.145 295.609 380.062 446.852 467.157 456.24 
404.178 342.754 252.291 188.318 190.402 225.882 244.465 228.029 185.62 
158.135 133.125 205.476 128.367 103.633 201.399 304.866 385.41 449.697 
467.307 452.813 406.3 349.384 224.52 158.766 135.27 151.089 166.937 
166.216 159.737 146.748 133.453 201.341 133.468 101.578 195.177 294.389 
375.103 443.602 459.363 436.477 388.539 327.695 211.078 151.927 117.774 
115.323 120.167 125.555 139.417 132.495 133.849 194.977 137.055 96.0451 
170.338 256.232 343.087 406.322 428.41 405.307 353.595 274.818 191.46 
140.891 110.819 92.2564 84.4708 90.0765 107.98 127.92 138.29 196.534 
148.501 93.208 129.854 193.472 271.212 340.464 369.189 346.919 281.009 
206.892 158.382 124.188 95.1231 75.6369 65.4253 66.0891 77.5057 99.4607 
133.573 192.462 151.39 85.6275 93.5372 141.767 182.545 221.232 242.411 
222.72 184.332 154.813 128.551 101.716 80.2378 65.4448 55.7804 51.9414 
56.177 75.8375 106.844 172.285 120.702 76.5126 85.0799 110.247 142.68 
161.15 161.417 148.56 135.906 119.948 99.7104 80.1614 64.4673 53.8332 
45.3133 39.0813 38.1917 53.8474 80.5052 116.541 93.5265 95.7317 107.668 
128.667 155.878 172.455 168.072 137.627 114.401 95.7549 76.137 64.9899 
53.7751 41.4783 32.7159 26.3493 22.433 35.7151 58.0458 99.2554 128.257 
157.797 178.525 186.766 188.487 183.402 174.372 150.137 113.741 84.9825 
64.9253 56.1681 44.4984 32.5042 22.6893 16.1464 11.0727 18.5749 39.5347 
150.049 186.195 218.662 238.274 242.504 235.679 220.477 200.999 178.131 
138.691 93.5919 66.8026 56.7123 43.7633 29.156 17.526 10.5708 4.17964 
5.59688 20.9241 201.353 241.283 282.943 308.094 311.821 292.862 259.619 
229.904 208.222 175.903 124.828 81.8741 64.0081 49.7059 33.0275 17.5177 
8.14523 0.797616 0.414388 6.71312 571.793 568.1 566.879 568.844 571.647 
561.291 544.678 543.336 567.644 620.162 661.634 695.698 722.553 751.112 
782.693 821.842 870.378 910.749 916.87 916.597 573.361 570.571 567.403 
567.394 570.312 570.272 555.535 544.041 542.982 568.207 617.98 657.688 
684.868 710.859 743.277 778.435 820.855 867.006 908.954 916.976 569.184 
573.126 569.334 566.957 568.566 571.402 568.185 550.511 527.422 526.7 
558.76 606.838 647.027 672.744 703.585 743.921 783.225 822.355 871.977 
911.158 553.42 570.557 572.317 568.246 567.111 566.283 536.227 487.511 
457.633 450.187 474.35 542.432 588.546 624.282 658.263 696.803 740.958 
818.687 863.51 899.414 525.26 556.992 572.036 571.279 562.264 520.095 
459.171 408.464 388.588 397.374 426.247 484.285 547.751 589.07 629.89 
670.97 715.752 784.21 830.447 877.131 496.785 531.695 562.896 564.34 
514.182 458.339 389.888 345.898 342.749 367.724 400.559 444.647 506.703 
560.123 605.325 650.928 696.628 762.753 803.067 851.631 474.151 506.43 
544.986 517.082 472.302 406.152 342.768 302.043 297.821 340.653 383.511 
418.026 484.97 536.642 586.272 635.519 681.807 744.649 785.288 829.466 
456.749 492.664 536.338 495.043 442.846 375.693 309.819 272.26 273.166 
329.63 376.266 408.997 467.385 519.518 572.938 625.365 669.51 729.639 
771.659 814.569 439.206 487.404 535.881 480.43 421.139 357.889 286.347 
261.372 266.443 318.065 371.038 406.77 458.974 509.535 564.482 618.941 
662.761 717.41 760.734 805.167 428.747 489.129 536.018 468.026 407.502 
346.659 278.397 256.902 265.834 316.314 369.663 407.59 458.863 505.767 
559.639 613.849 657.53 708.888 752.607 799.685 426.73 493.962 535.438 
462.017 402.851 343.202 274.877 256.852 266.259 310.395 365.378 414.636 
463.133 504.95 555.905 607.863 652.551 701.677 746.281 796.301 429.435 
488.982 535.736 467.285 408.438 351.389 280.496 263.051 280.791 326.133 
375.438 421.487 463.532 508.519 556.506 604.579 649.479 698.825 744.336 
795.974 433.43 488.859 534.468 484.246 426.549 373.646 317.128 290.265 
314.703 359.691 397.434 436.012 476.728 520.863 565.11 609.69 652.463 
701.816 748.88 800.997 430.776 477.534 533.222 512.026 457.399 408.8 
369.184 348.437 360.174 390.097 425.164 461.697 500.283 541.537 582.328 
623.533 662.869 712.819 761.543 808.977 433.484 473.305 536.123 541.295 
493.006 450.57 420.686 403.459 409.489 432.636 463.099 496.872 532.27 
569.171 608.274 643.977 679.011 730.549 778.799 821.394 451.286 497.836 
549.729 547.232 523.309 479.255 457.396 453.937 463.607 488.019 515.397 
541.933 572.055 608.604 638.694 668.544 700.983 752.647 796.842 834.752 
499.462 534.724 535.313 522.825 503.763 474.347 459.24 476.692 516.165 
543.223 568.062 596.454 622.93 644.724 668.768 696.652 725.698 776.439 
814.529 847.808 533.252 506.759 476.426 453.591 443.275 440.335 446.313 
462.502 508.862 552.385 590.657 625.039 648.002 671.4 690.534 716.08 
745.56 794.09 829.161 858.679 487.163 450.666 416.891 392.436 385.416 
389.231 403.891 425.505 453.408 507.898 558.61 601.375 633.52 664.629 
692.518 718.128 749.917 798.328 831.855 864.513 436.34 395.396 359.545 
340.655 335.557 344.355 365.653 391.517 417.435 454.552 510.412 557.47 
600.117 638.031 674.694 706.794 739.485 785.948 820.507 854.987 573.215 
569.684 568.271 570.243 571.247 561.546 539.287 499.309 455.041 430.952 
414.703 376.739 349.179 353.092 385.01 434.127 491.972 538.373 541.589 
538.473 576.365 572.02 568.839 568.881 571.286 568.935 556.169 534.136 
493.318 431.816 355.21 303.071 276.462 284.49 323.412 380.246 443.393 
505.015 534.494 533.845 572.943 575.209 570.972 568.342 570.021 571.61 
567.093 552.122 513.881 433.342 339.86 263.46 214.424 206.851 262.079 
331.566 399.589 457.855 506.119 525.259 556.738 574.209 574.057 569.809 
568.575 568.825 543.755 501.276 478.299 444.897 382.938 290.509 210.787 
170.455 185.565 262.368 340.375 461.543 496.761 514.257 528.984 559.862 