COORDSYS
  1  350  'INCOMP  '  /

SPECGRID
  22 74 350  1  F  /

INCLUDE
	'MAC7A-TM02-COORD.txt' /

INCLUDE
	'MAC7A-TM02-ZCORN.txt' /

INCLUDE
	'MAC7A-TM02-PORO.txt' /

INCLUDE
	'MAC7A-TM02-ACTNUM.txt' /

